REMARK  Name = referencia_conf1
REMARK                            x       y       z     vdW  Elec       q    Type
REMARK                         _______ _______ _______ _____ _____    ______ ____
ATOM      1  C   UNL     1       4.338   0.881  -0.075  0.00  0.00    +0.000 C 
ATOM      2  N   UNL     1       3.958  -0.191   0.847  0.00  0.00    +0.000 NA
ATOM      3  C   UNL     1       4.795  -0.126   2.049  0.00  0.00    +0.000 C 
ATOM      4  C   UNL     1       2.534  -0.106   1.227  0.00  0.00    +0.000 C 
ATOM      5  C   UNL     1       1.560  -0.428   0.084  0.00  0.00    +0.000 C 
ATOM      6  O   UNL     1       0.227  -0.406   0.604  0.00  0.00    +0.000 OA
ATOM      7  C   UNL     1      -0.764  -0.666  -0.404  0.00  0.00    +0.000 C 
ATOM      8  C   UNL     1      -2.002  -1.290   0.232  0.00  0.00    +0.000 A 
ATOM      9  C   UNL     1      -2.287  -1.150   1.600  0.00  0.00    +0.000 A 
ATOM     10  C   UNL     1      -3.434  -1.722   2.154  0.00  0.00    +0.000 A 
ATOM     11  C   UNL     1      -4.316  -2.438   1.349  0.00  0.00    +0.000 A 
ATOM     12  C   UNL     1      -4.054  -2.583  -0.011  0.00  0.00    +0.000 A 
ATOM     13  C   UNL     1      -2.907  -2.012  -0.567  0.00  0.00    +0.000 A 
ATOM     14  C   UNL     1      -1.087   0.617  -1.155  0.00  0.00    +0.000 A 
ATOM     15  C   UNL     1      -1.108   0.631  -2.559  0.00  0.00    +0.000 A 
ATOM     16  C   UNL     1      -1.407   1.805  -3.254  0.00  0.00    +0.000 A 
ATOM     17  C   UNL     1      -1.690   2.977  -2.555  0.00  0.00    +0.000 A 
ATOM     18  C   UNL     1      -1.675   2.978  -1.162  0.00  0.00    +0.000 A 
ATOM     19  C   UNL     1      -1.377   1.806  -0.466  0.00  0.00    +0.000 A 
TER 
